4
Lattice="3.61568789 0.0 0.0 0.0 3.61568789 0.0 0.0 -0.0 3.61568789" Properties=species:S:1:pos:R:3:forces:R:3:magmoms:R:1 energy=-38.06448831 stress="-0.007127072297621184 -0.0 0.0 0.0 -0.007127072297621184 0.0 -0.0 -0.0 -0.007127072297621184" bandgap=0.0 e_per_atom_relaxed=-9.52651278 mp_id=mp-1184225 energy_per_atom=-9.5161220775 ef_per_atom_relaxed=-9.52651278 corrected_total_energy=-38.06448831 ef_per_atom=0.07538231999999923 task_id=mp-1184225 calc_id=0 ionic_step=2 pbc="T T T"
Fe       0.00000000       1.80784033       1.80784033       0.00000000       0.00000000       0.00000000       0.75600000
Fe       1.80784033       0.00000000       1.80784033       0.00000000      -0.00000000      -0.00000000       0.75900000
Fe       1.80784033       1.80784033       0.00000000      -0.00000000       0.00000000       0.00000000       0.74600000
W        0.00000000       0.00000000       0.00000000      -0.00000000      -0.00000000       0.00000000      -0.29700000
4
Lattice="3.60101098 0.0 0.0 0.0 3.60101098 0.0 0.0 -0.0 3.60101098" Properties=species:S:1:pos:R:3:forces:R:3 energy=-38.05520637 stress="-0.019179986158240167 -0.0 -0.0 -0.0 -0.019179986158240167 -0.0 0.0 0.0 -0.019179986158240167" e_per_atom_relaxed=-9.52651278 mp_id=mp-1184225 energy_per_atom=-9.5138015925 ef_per_atom_relaxed=-9.52651278 corrected_total_energy=-38.05520637 ef_per_atom=0.07770280499999949 task_id=mp-1184225 calc_id=0 ionic_step=1 pbc="T T T"
Fe       0.00000000       1.80050189       1.80050189      -0.00000000      -0.00000000      -0.00000000
Fe       1.80050189       0.00000000       1.80050189      -0.00000000      -0.00000000      -0.00000000
Fe       1.80050189       1.80050189       0.00000000      -0.00000000       0.00000000       0.00000000
W        0.00000000       0.00000000       0.00000000       0.00000000       0.00000000       0.00000000
4
Lattice="3.62448962 0.0 0.0 0.0 3.62448962 0.0 0.0 0.0 3.62448962" Properties=species:S:1:pos:R:3:forces:R:3 energy=-38.06523566 stress="0.011280142298528788 -0.0 -0.0 -0.0 0.011280142298528788 0.0 -0.0 -0.0 0.011280142298528788" e_per_atom_relaxed=-9.52651278 mp_id=mp-1184225 energy_per_atom=-9.516308915 ef_per_atom_relaxed=-9.52651278 corrected_total_energy=-38.06523566 ef_per_atom=0.07519548249999986 task_id=mp-1184225 calc_id=0 ionic_step=0 pbc="T T T"
Fe       0.00000000       1.81224119       1.81224119       0.00000000       0.00000000      -0.00000000
Fe       1.81224119       0.00000000       1.81224119      -0.00000000       0.00000000       0.00000000
Fe       1.81224119       1.81224119       0.00000000      -0.00000000      -0.00000000       0.00000000
W        0.00000000       0.00000000       0.00000000       0.00000000       0.00000000       0.00000000
4
Lattice="3.69582283 0.0 -0.0 0.0 3.69582283 0.0 -0.0 0.0 3.69582283" Properties=species:S:1:pos:R:3:forces:R:3 energy=-37.93384578 stress="0.0892112084737768 0.0 0.0 0.0 0.0892112084737768 0.0 -0.0 -0.0 0.0892112084737768" e_per_atom_relaxed=-9.52651278 mp_id=mp-1184225 energy_per_atom=-9.483461445 ef_per_atom_relaxed=-9.52651278 corrected_total_energy=-37.93384578 ef_per_atom=0.10804295249999996 task_id=mp-1184225 calc_id=1 ionic_step=1 pbc="T T T"
Fe       0.00000000       1.84790772       1.84790772       0.00000000       0.00000000       0.00000000
Fe       1.84790772       0.00000000       1.84790772      -0.00000000      -0.00000000       0.00000000
Fe       1.84790772       1.84790772       0.00000000       0.00000000       0.00000000      -0.00000000
W        0.00000000       0.00000000       0.00000000       0.00000000      -0.00000000      -0.00000000
4
Lattice="3.578076 0.0 0.0 0.0 3.578076 0.0 0.0 0.0 3.578076" Properties=species:S:1:pos:R:3:forces:R:3 energy=-38.01304209 stress="-0.05956346513928609 -0.0 0.0 -0.0 -0.05956346513928609 -0.0 0.0 -0.0 -0.05956346513928609" e_per_atom_relaxed=-9.52651278 mp_id=mp-1184225 energy_per_atom=-9.5032605225 ef_per_atom_relaxed=-9.52651278 corrected_total_energy=-38.01304209 ef_per_atom=0.08824387499999986 task_id=mp-1184225 calc_id=1 ionic_step=0 pbc="T T T"
Fe       0.00000000       1.78903442       1.78903442       0.00000000      -0.00000000      -0.00000000
Fe       1.78903442       0.00000000       1.78903442      -0.00000000       0.00000000      -0.00000000
Fe       1.78903442       1.78903442       0.00000000      -0.00000000       0.00000000       0.00000000
W        0.00000000       0.00000000       0.00000000       0.00000000      -0.00000000       0.00000000
4
Lattice="3.615688 0.0 0.0 0.0 3.615688 0.0 0.0 0.0 3.615688" Properties=species:S:1:pos:R:3:forces:R:3:magmoms:R:1 energy=-38.10605112 stress="-0.007731608843358802 0.000367531133805944 -0.00038705001180853587 0.000367531083873871 -0.0078740786166888 -0.0003733250143803372 -0.00038705853146849266 -0.00037333439536855334 -0.00810785897844004" bandgap=0.0 e_per_atom_relaxed=-9.52651278 mp_id=mp-1184225 energy_per_atom=-9.52651278 ef_per_atom_relaxed=-9.52651278 corrected_total_energy=-38.10605112 ef_per_atom=0.06499161750000049 task_id=mp-1793285 calc_id=0 ionic_step=0 pbc="T T T"
Fe       0.00000000       1.80784038       1.80784038      -0.00002716       0.00003149       0.00003566       0.77500000
Fe       1.80784038       0.00000000       1.80784038       0.00003404      -0.00002596       0.00003079       0.78300000
Fe       1.80784038       1.80784038       0.00000000       0.00003301       0.00003129      -0.00002677       0.76900000
W        0.00000000       0.00000000       0.00000000      -0.00003989      -0.00003682      -0.00003968      -0.30300000
