99
Lattice="-4.039723298286767 4.039723298286767 4.039723298286767 4.039723298286767 -4.039723298286767 4.039723298286767 14.812318760384814 14.812318760384814 -14.812318760384814" Properties=species:S:1:pos:R:3 energy=-701.3836929723975 max_force=7.87217977469913e-05 pbc="T T T"
Re       0.00482629       0.01191940      -0.03807456
W        1.35714257       1.36052711      -1.35818985
W        2.72819238       2.69423255      -2.71014460
W        4.05649345       4.06188519      -4.04314859
W        5.41714572       5.43842926      -5.35604789
Ta       6.77315609       6.78751640      -6.68088406
Re       8.09747446       8.04851012      -8.08613278
W        9.39590882       9.41221427      -9.42864515
Re      10.76166754      10.75106283     -10.77658179
W       12.10802609      12.11796727     -12.12239784
W       13.47319294      13.47137064     -13.47661669
W        1.38479330      -1.35057964       1.39026446
Ta       2.65351749      -0.04749925      -0.04088260
Ta       4.02954566       1.32896552      -1.34350506
Re       5.35413165       2.63159773      -2.74488239
Re       6.71956953       4.02783311      -4.04491368
W        8.06492347       5.40663498      -5.37633183
W        9.43545872       6.73713438      -6.71259588
W       10.77664399       8.07758896      -8.07813388
Ta      12.13859018       9.39409965      -9.45824651
W       13.48153554      10.80655522     -10.74652878
W       14.81271989      12.13624832     -12.11392458
V        2.69657322      -2.69717968       2.69487489
W        4.00786564      -1.36409083       1.39582979
W        5.37864634      -0.01570984       0.01785297
W        6.71667553       1.34429647      -1.34540576
W        8.04209913       2.66312318      -2.71630340
Ta       9.42463106       4.06219425      -4.02564503
W       10.82154014       5.42116276      -5.35082501
W       12.12117126       6.70718143      -6.75060044
W       13.47176728       8.06824908      -8.07495886
W       14.77613946       9.38135048      -9.47900769
W       16.17997094      10.80438837     -10.79498859
W       -1.36749785       1.36593904       1.37835466
W       -0.02841865       2.66012169      -0.03186630
W        1.34840529       4.10118837      -1.29069058
W        2.69222712       5.39391571      -2.68735503
W        4.02953789       6.76549215      -4.04255325
W        5.39485656       8.07598849      -5.39103415
Ta       6.79152171       9.43406610      -6.75371258
V        8.12441683      10.78137057      -8.04257757
W        9.38393347      12.06252268      -9.38752495
W       10.77180473      13.45218640     -10.73363661
W       12.10184012      14.78621928     -12.12746366
Ta      -0.00358461       0.00390526       2.70825463
W        1.35303659       1.35112723       1.34401893
W        2.69670078       2.71417844      -0.00545865
W        4.03913007       4.09107408      -1.33129112
W        5.41773330       5.44105763      -2.74016321
V        6.75187733       6.77068234      -4.08931954
V        8.05531328       8.03769717      -5.36102531
W        9.36790318       9.37625313      -6.70036824
W       10.71596300      10.74782290      -8.03896186
W       12.09786413      12.10068367      -9.39830819
W       13.44965343      13.47129594     -10.75187409
W        1.38948981      -1.36025824       4.01742818
W        2.72499852       0.04620463       2.72949972
W        4.01954383       1.33388742       1.33283336
W        5.37029416       2.69973389       0.00252061
W        6.70285074       4.03569268      -1.37489221
W        8.04215844       5.41622947      -2.71467231
Ta       9.39835155       6.74068135      -4.06795059
Re      10.81842095       8.04882680      -5.36180155
W       12.12772523       9.42133357      -6.72506363
W       13.48933331      10.76416982      -8.08429169
Ta      14.86628171      12.18334956      -9.38304441
V       -2.67845896       2.71457106       2.68195326
W       -1.34344014       4.03999339       1.33945186
V       -0.02819722       5.37032310       0.01363827
W        1.31277833       6.65607042      -1.28323914
W        2.67084099       8.06400188      -2.65800811
Re       4.04249029       9.41767545      -4.03117072
W        5.39819053      10.77151715      -5.41333231
W        6.75357507      12.09458537      -6.78783325
W        8.11847152      13.45076575      -8.04485693
W        9.44178729      14.82438182      -9.42732612
W       10.82561015      16.20360196     -10.80072651
W       -1.37545389       1.37793205       4.01727309
W        0.01958731       2.70571596       2.67054824
W        1.34888746       4.08935314       1.27157951
V        2.69973495       5.38899366      -0.00067538
W        4.02699574       6.71033160      -1.32303225
W        5.42396464       8.07685495      -2.70716252
W        6.75835481       9.41426185      -4.10639429
W        8.11635066      10.81477899      -5.44080528
V        9.40576851      12.07065488      -6.76653242
W       10.72610225      13.43364668      -8.04776897
W       12.13482800      14.84576495      -9.38292956
Ta      -0.00135590       0.00097860       5.42834598
W        1.33850706       1.35980992       4.05197005
W        2.72236562       2.68988286       2.71639223
W        4.03167678       4.07600018       1.34656835
W        5.41308778       5.40442547       0.02463166
W        6.72257072       6.73370531      -1.34346080
Ta       8.02283290       8.03796241      -2.75057654
Re       9.38696034       9.38170641      -4.08555221
W       10.74923206      10.76276938      -5.40352346
Ta      12.11734372      12.10482978      -6.73803887
W       13.45695314      13.47267893      -8.07230056
99
Lattice="-4.27735408053893 4.27735408053893 4.27735408053893 4.27735408053893 -4.27735408053893 4.27735408053893 15.683631628642745 15.683631628642745 -15.683631628642745" Properties=species:S:1:pos:R:3 energy=-701.3839091019137 max_force=0.0001628999252425785 pbc="T T T"
Re       0.00358536       0.01099639      -0.02518610
W        1.42918631       1.44113518      -1.42684861
W        2.87919847       2.85643202      -2.86709324
W        4.29294813       4.28705754      -4.27717706
W        5.72058576       5.72569671      -5.67827983
Ta       7.15979138       7.15013886      -7.09687177
Re       8.56928990       8.53489846      -8.55926436
W        9.95475821       9.98028271      -9.97532489
Re      11.38749333      11.39753017     -11.41219393
W       12.82068623      12.82525376     -12.83205955
W       14.26336095      14.25915055     -14.26402510
W        1.45183785      -1.43626867       1.44955905
Ta       2.83345401      -0.02432617      -0.02251826
Ta       4.28052826       1.42357270      -1.43217493
Re       5.69133528       2.81326219      -2.89477276
Re       7.11800045       4.27304455      -4.27909333
W        8.54067195       5.71882726      -5.69561446
W        9.98407042       7.14111352      -7.12048267
W       11.40601599       8.54848164      -8.54995385
Ta      12.83092752       9.95760000     -10.00766901
W       14.25648950      11.41402163     -11.40085875
W       15.68516347      12.83781667     -12.83010530
V        2.85511381      -2.84467918       2.86380537
W        4.26769736      -1.43431043       1.46463144
W        5.71191382      -0.00193878       0.01097777
W        7.12969851       1.43047978      -1.42974611
W        8.52639049       2.82891952      -2.87113856
Ta       9.97658085       4.28574792      -4.27650685
W       11.44082964       5.72750296      -5.68890159
W       12.83004005       7.11646518      -7.13529308
W       14.25206798       8.53519536      -8.55354823
W       15.65563981       9.95010681     -10.00895988
W       17.12940672      11.42248951     -11.42637986
W       -1.43558652       1.44427969       1.43898103
W       -0.00847497       2.83917502      -0.01968589
W        1.43689048       4.32705797      -1.38371238
W        2.85982433       5.71117051      -2.84515033
W        4.27398875       7.14349766      -4.27954772
W        5.70693100       8.54565645      -5.69446864
Ta       7.17605838       9.98451991      -7.14020421
V        8.57505466      11.42245405      -8.53975445
W        9.94351694      12.79481935      -9.95528369
W       11.39353001      14.24353093     -11.38773245
W       12.82948266      15.66915908     -12.83366576
Ta       0.00334935       0.00396363       2.86009829
W        1.43472292       1.43437417       1.42543942
W        2.85687428       2.87047666       0.00008443
W        4.27778868       4.31065924      -1.41507080
W        5.72161232       5.73349785      -2.88387239
V        7.13278771       7.15014625      -4.30659325
V        8.54096745       8.53240485      -5.68784371
W        9.94168490       9.94820426      -7.10777274
W       11.35442852      11.39133177      -8.53087880
W       12.81122689      12.82340826      -9.97064447
W       14.23847932      14.25697792     -11.39740032
W        1.46431691      -1.43932829       4.26418536
W        2.88026442       0.02833715       2.87843998
W        4.27723072       1.42533702       1.42941802
W        5.70337595       2.85747343       0.00275400
W        7.11167367       4.26989200      -1.44537944
W        8.52488247       5.71948739      -2.86085720
Ta       9.96379347       7.14007806      -4.30505882
Re      11.43294173       8.53855158      -5.69011649
W       12.82900144       9.97038268      -7.12247088
W       14.26416899      11.39670396      -8.55875058
Ta      15.71448205      12.86616503      -9.95350086
V       -2.83802690       2.86287663       2.85685554
W       -1.41749410       4.28103513       1.41940741
V       -0.00199718       5.69909978       0.00810097
W        1.41386798       7.08200764      -1.37641251
W        2.84263492       8.54271985      -2.83203433
Re       4.27996451       9.97255284      -4.27544512
W        5.71094835      11.40816501      -5.70804056
W        7.13679553      12.82131411      -7.16424434
W        8.56042186      14.24174142      -8.53527090
W        9.98270256      15.68120402      -9.97712305
W       11.43297791      17.13327126     -11.42466391
W       -1.44578843       1.45240415       4.26805166
W        0.02082506       2.85718386       2.83649278
W        1.44044290       4.31527673       1.37552501
V        2.85258405       5.71013500       0.00370113
W        4.25796501       7.10949079      -1.40665599
W        5.71772917       8.55046347      -2.86283358
W        7.14314221       9.97488740      -4.31491729
W        8.57733424      11.42909557      -5.73829080
V        9.95678873      12.79178866      -7.15674073
W       11.36500090      14.23404967      -8.53831787
W       12.83699854      15.70041021      -9.95188474
Ta       0.00003720       0.00486027       5.73646242
W        1.43890415       1.44178587       4.28564293
W        2.88271573       2.84997348       2.87199452
W        4.27627553       4.30261041       1.42480709
W        5.71557131       5.70521710       0.00689172
W        7.12362483       7.11871842      -1.42915419
Ta       8.51924624       8.53110761      -2.89172354
Re       9.95197879       9.95689771      -4.31165305
W       11.38290630      11.39871548      -5.71112426
Ta      12.82659905      12.82415722      -7.13461892
W       14.25371870      14.27266475      -8.54575351
99
Lattice="-4.514984862791093 4.514984862791093 4.514984862791093 4.514984862791093 -4.514984862791093 4.514984862791093 16.554944496900674 16.554944496900674 -16.554944496900674" Properties=species:S:1:pos:R:3 energy=-701.383645146367 max_force=0.00048082945462663885 pbc="T T T"
Re       0.00573741       0.00977320      -0.01763236
W        1.50612443       1.52325552      -1.50169883
W        3.03110675       3.02392337      -3.02494793
W        4.53339147       4.51776322      -4.51230900
W        6.02746955       6.02492691      -5.99928195
Ta       7.55411252       7.52756706      -7.50570237
Re       9.04259874       9.02010589      -9.03502332
W       10.52115963      10.54349505     -10.52326838
Re      12.01745609      12.03652335     -12.04530377
W       13.53087199      13.53265386     -13.54697102
W       15.05235621      15.04949222     -15.05562613
W        1.52199975      -1.51715837       1.51436123
Ta       3.00294704      -0.00883511      -0.00629295
Ta       4.53088916       1.51779042      -1.52080346
Re       6.02170471       2.98873358      -3.04520330
Re       7.51828733       4.51094844      -4.51686228
W        9.01525120       6.02759522      -6.01791963
W       10.53329743       7.53707080      -7.52106732
W       12.03506849       9.01959306      -9.02299281
Ta      13.53054304      10.51681863     -10.55565455
W       15.03892868      12.03129325     -12.04839607
W       16.55784135      13.54566327     -13.54429916
V        3.01338029      -2.99925098       3.02752452
W        4.51701159      -1.51193950       1.53602267
W        6.03779233       0.00563987       0.00944313
W        7.53191403       1.51448611      -1.51345958
W        9.00987628       2.99142872      -3.02369104
Ta      10.51958821       4.51742839      -4.52654811
W       12.06556965       6.03665270      -6.01567385
W       13.53872143       7.51562608      -7.52428286
W       15.04284788       9.00325928      -9.02708550
W       16.52662435      10.51778290     -10.54749072
W       18.07629361      12.04255223     -12.05716937
W       -1.51078946       1.51987762       1.50272864
W        0.00278983       3.01583242      -0.01070321
W        1.51832632       4.55503464      -1.47449619
W        3.02294655       6.03046610      -3.00022689
W        4.51935779       7.52908758      -4.51722463
W        6.01573388       9.01903284      -6.00694637
Ta       7.56766500      10.53082608      -7.52556317
V        9.03638958      12.05935975      -9.03014001
W       10.50422950      13.51845608     -10.51730024
W       12.02139909      15.03376802     -12.02996264
W       13.54900416      16.54465171     -13.54184185
Ta       0.00564354       0.00348525       3.01487258
W        1.51165311       1.51923879       1.50478153
W        3.01479692       3.03297438       0.00434773
W        4.51900812       4.53594617      -1.49933324
W        6.03232165       6.03514447      -3.03275889
V        7.52172529       7.52977011      -4.53644439
V        9.03102010       9.02656429      -6.00349316
W       10.50947106      10.51458411      -7.51026040
W       11.98657930      12.02902961      -9.01388324
W       13.52568592      13.53443404     -10.53095499
W       15.02453471      15.04524685     -12.03846601
W        1.54426488      -1.51857464       4.50763399
W        3.03345288       0.01682354       3.02673953
W        4.52769720       1.51461492       1.51867246
W        6.03150649       3.02195221       0.00534633
W        7.51503791       4.50696416      -1.52013811
W        9.00357920       6.03084100      -3.01040365
Ta      10.52709361       7.53718323      -4.54553653
Re      12.05684911       9.02153486      -6.01617779
W       13.53403604      10.52166023      -7.52070035
W       15.04919168      12.02633389      -9.03045348
Ta      16.56867752      13.56071872     -10.52131837
V       -2.99853823       3.01564021       3.02410735
W       -1.49717355       4.52103663       1.49920552
V        0.01753276       6.02743240       0.00852169
W        1.50487418       7.49814811      -1.46835754
W        3.00771644       9.02419322      -2.99995686
Re       4.51847897      10.52302441      -4.51799115
W        6.02345111      12.04351558      -6.01562298
W        7.52680012      13.53801172      -7.54832662
W        9.01992069      15.03050433      -9.01746239
W       10.53205962      16.54086633     -10.52798544
W       12.04811176      18.06897007     -12.05126683
W       -1.52434573       1.53235531       4.51318745
W        0.01940966       3.01646456       2.99643356
W        1.52665998       4.54443758       1.46815302
V        3.00591218       6.03110730       0.00561192
W        4.49417426       7.50519916      -1.49502609
W        6.02546207       9.02620087      -3.01917517
W        7.52889232      10.53269194      -4.54005233
W        9.04385958      12.05282569      -6.03939409
V       10.52078688      13.50920389      -7.54849228
W       12.00359003      15.03507042      -9.02567243
W       13.54665774      16.56202776     -10.51731894
Ta       0.00073638       0.00478821       6.04352193
W        1.53266449       1.52556937       4.52131427
W        3.04078133       3.01444007       3.02580327
W        4.51939149       4.53461851       1.50584132
W        6.01839346       6.01640643      -0.00380305
W        7.52197444       7.50632822      -1.50969345
Ta       9.00510503       9.02691892      -3.03094582
Re      10.51383224      10.51730480      -4.54062480
W       12.01591722      12.02633389      -6.01782704
Ta      13.53385593      13.53617181      -7.52721915
W       15.04591637      15.06917297      -9.01807718
99
Lattice="-4.752615645043256 4.752615645043256 4.752615645043256 4.752615645043256 -4.752615645043256 4.752615645043256 17.426257365158605 17.426257365158605 -17.426257365158605" Properties=species:S:1:pos:R:3 energy=-701.3837118207643 max_force=5.039835631106187e-05 pbc="T T T"
Re       0.00824165       0.01192264      -0.01006631
W        1.58143392       1.60409405      -1.58008107
W        3.18050741       3.18922893      -3.18536531
W        4.77142384       4.74576858      -4.75078097
W        6.33439064       6.32966205      -6.32064567
Ta       7.95186911       7.91430678      -7.90909909
Re       9.51861804       9.50068933      -9.51530350
W       11.08632808      11.10372445     -11.07079514
Re      12.65552515      12.67728161     -12.67307314
W       14.24715941      14.24431354     -14.25857146
W       15.84439730      15.84245373     -15.84518421
W        1.59635963      -1.59745423       1.58705101
Ta       3.16074002      -0.00254790       0.00207890
Ta       4.77504866       1.60451742      -1.61071007
Re       6.33957193       3.15436261      -3.19985430
Re       7.91766271       4.74879608      -4.75924220
W        9.48842796       6.33529706      -6.34533665
W       11.08549125       7.93310595      -7.91763044
W       12.66510401       9.49343706      -9.49415759
Ta      14.24042822      11.07482633     -11.10476267
W       15.83294638      12.65837345     -12.68814660
W       17.43687976      14.25822111     -14.25405250
V        3.17007373      -3.15126803       3.19073917
W        4.75936437      -1.59512759       1.61144176
W        6.35642743       0.00379235       0.00920001
W        7.92623444       1.59110357      -1.59858159
W        9.48157150       3.15040312      -3.17966863
Ta      11.05924216       4.75208081      -4.77786651
W       12.69864645       6.35028477      -6.34179522
W       14.25238827       7.91280198      -7.91352079
W       15.84154393       9.47193897      -9.49647671
W       17.39913638      11.08595105     -11.08809497
W       19.02896367      12.66994768     -12.68662563
W       -1.58882638       1.59771869       1.57150078
W        0.00700648       3.18537723      -0.00744809
W        1.59450505       4.78460842      -1.56176934
W        3.17924275       6.34679650      -3.15685296
W        4.76197669       7.92066757      -4.75775364
W        6.32351245       9.49525714      -6.32268134
Ta       7.97136643      11.07563877      -7.91306859
V        9.51272329      12.69977976      -9.51635807
W       11.06338873      14.23878039     -11.07023003
W       12.65692031      15.82568559     -12.66249031
W       14.26815416      17.41969569     -14.24721767
Ta       0.00747778       0.00330692       3.17355862
W        1.58721459       1.60461944       1.58253553
W        3.16765604       3.19723507       0.00565365
W        4.75356636       4.76642328      -1.58300067
W        6.34415105       6.33892356      -3.18865334
V        7.90693574       7.90457361      -4.77569703
V        9.52770067       9.52041301      -6.31792260
W       11.07116118      11.07823298      -7.90654538
W       12.61602469      12.66554787      -9.48866442
W       14.24458463      14.24653913     -11.08228005
W       15.81138638      15.83538017     -12.67404339
W        1.63161485      -1.59857523       4.74584246
W        3.18887384       0.00708803       3.17733919
W        4.76868000       1.59645425       1.60201395
W        6.35308003       3.18504493       0.00822696
W        7.90974648       4.74166498      -1.60107614
W        9.47739653       6.34492820      -3.16272851
Ta      11.08981982       7.93343115      -4.79374906
Re      12.68662751       9.50307483      -6.34241423
W       14.24496480      11.07632089      -7.91370433
W       15.84375683      12.65882602      -9.49825272
Ta      17.43612335      14.27137816     -11.07826921
V       -3.15439843       3.16770808       3.19041739
W       -1.57992650       4.75575912       1.57637298
V        0.03155601       6.34697907       0.00639165
W        1.58617726       7.90186770      -1.55304405
W        3.16442746       9.50349405      -3.16612515
Re       4.75553458      11.07569399      -4.76290107
W        6.33714364      12.67866966      -6.32924369
W        7.92305681      14.25348900      -7.93885123
W        9.48965548      15.81973478      -9.49329949
W       11.09167266      17.40812105     -11.07646338
W       12.67235929      19.01453364     -12.67933422
W       -1.60616292       1.61688966       4.75618563
W        0.01612046       3.17431081       3.15234249
W        1.60725422       4.77284207       1.54958054
V        3.14998969       6.35320254       0.00405774
W        4.72597509       7.89825882      -1.58566551
W        6.33964857       9.50188902      -3.17922391
W        7.91334771      11.09075577      -4.77693666
W        9.51840978      12.68243020      -6.34391142
V       11.08834400      14.22058949      -7.94328840
W       12.64233989      15.83704877      -9.50603091
W       14.26148006      17.43126093     -11.07473039
Ta       0.00025587       0.00366376       6.35575413
W        1.62475216       1.60795850       4.75778523
W        3.19556748       3.17417308       3.17805518
W        4.75630257       4.76744172       1.58521958
W        6.31767533       6.33137914      -0.01300000
W        7.91538135       7.89410334      -1.59331590
Ta       9.48236554       9.51625719      -3.18130403
Re      11.07047486      11.07146440      -4.77037784
W       12.65149452      12.65278660      -6.32041564
Ta      14.24244370      14.24911813      -7.91626251
W       15.84020269      15.87058106      -9.48620792
99
Lattice="-4.990246427295419 4.990246427295419 4.990246427295419 4.990246427295419 -4.990246427295419 4.990246427295419 18.297570233416536 18.297570233416536 -18.297570233416536" Properties=species:S:1:pos:R:3 energy=-701.3777413153762 max_force=0.00010714880716260956 pbc="T T T"
Re       0.00125517       0.01543081       0.01018642
W        1.66108162       1.69845224      -1.65859419
W        3.33345070       3.36685542      -3.34944915
W        5.02304021       4.97679367      -4.99383500
W        6.63824603       6.63271848      -6.64841543
Ta       8.35423328       8.28799876      -8.32898159
Re      10.00205404       9.97077934      -9.99525522
W       11.65215546      11.66173499     -11.61968993
Re      13.29950839      13.32768482     -13.28876060
W       14.95857822      14.95227489     -14.95580101
W       16.63437193      16.63095562     -16.63012496
W        1.66469391      -1.68085733       1.66061051
Ta       3.31987727       0.00421599       0.00979098
Ta       5.02696636       1.69603625      -1.70511268
Re       6.65338753       3.32816471      -3.34668444
Re       8.31357822       4.98674246      -5.01443570
W        9.96295946       6.63044560      -6.68891203
W       11.65257119       8.32101000      -8.32861034
W       13.29315718       9.96752821      -9.95617192
Ta      14.94323240      11.63401419     -11.65074798
W       16.62151379      13.28814489     -13.32252358
W       18.30895087      14.96807242     -14.96118411
V        3.32391260      -3.30216853       3.35894009
W        5.01035726      -1.66626268       1.68486415
W        6.68779767       0.00483823       0.00679239
W        8.32367134       1.67081743      -1.68756422
W        9.94524348       3.31053678      -3.33601601
Ta      11.59569846       4.98205714      -5.03442464
W       13.33124343       6.66785802      -6.68143228
W       14.97459649       8.31428307      -8.30279284
W       16.64448725       9.93216373      -9.95082189
W       18.27049629      11.64870313     -11.61384819
W       19.97849481      13.29030576     -13.30873348
W       -1.65937913       1.66898136       1.63345560
W        0.01970113       3.35671687      -0.00519435
W        1.67581118       5.01671134      -1.65946931
W        3.33933016       6.66621742      -3.31848445
W        4.99601844       8.32120842      -5.00641780
W        6.61205201       9.98141689      -6.64142111
Ta       8.38079267      11.62070250      -8.29855732
V        9.99547284      13.33824942     -10.01057379
W       11.62260787      14.95652953     -11.62394952
W       13.28683221      16.61141158     -13.28445892
W       14.98436249      18.28200188     -14.94584388
Ta       0.00561086       0.00383289       3.33122171
W        1.66964269       1.69835320       1.65844124
W        3.32615612       3.37519518       0.00440386
W        4.99858197       4.99991121      -1.67781659
W        6.65408796       6.63848895      -3.35312873
V        8.27057068       8.26736033      -5.00961696
V       10.04285971      10.02524809      -6.65008877
W       11.65011301      11.62738473      -8.28722333
W       13.24307560      13.29225142      -9.96094838
W       14.95202742      14.95613250     -11.63129029
W       16.58472204      16.61988255     -13.30300820
W        1.72431230      -1.67784356       4.98560102
W        3.34382907      -0.00045956       3.32428786
W        5.01540344       1.68328426       1.68273307
W        6.67657876       3.34995698       0.00810117
W        8.29657396       4.96979267      -1.69985920
W        9.94288419       6.65114217      -3.30600656
Ta      11.66105597       8.33444738      -5.05384795
Re      13.33008030       9.98871722      -6.67150589
W       14.95799981      11.62336607      -8.29384253
W       16.64136636      13.28303019      -9.95787884
Ta      18.30236490      14.97897764     -11.62741599
V       -3.30588149       3.31483519       3.36079248
W       -1.65943704       4.98852033       1.64555904
V        0.04524113       6.67020143      -0.00387473
W        1.67069535       8.31410025      -1.63939102
W        3.31927782       9.97262265      -3.33412271
Re       4.99305465      11.63163641      -5.01375015
W        6.64710004      13.31373395      -6.63348758
W        8.30802950      14.99220248      -8.33110938
W        9.94263937      16.61779580      -9.97021690
W       11.64883899      18.27098509     -11.61634795
W       13.29368354      19.95703591     -13.29665714
W       -1.69279110       1.70014137       5.00343835
W        0.02351893       3.33314947       3.30235106
W        1.69812662       5.00158787       1.63232134
V        3.30027128       6.68599562      -0.00132836
W        4.96124495       8.29110303      -1.68903168
W        6.64349575       9.98025826      -3.34644173
W        8.28322665      11.65978719      -5.01417088
W        9.99337723      13.31399100      -6.63486830
V       11.65267811      14.92932042      -8.32988178
W       13.27278243      16.63941372      -9.98418149
W       14.96333814      18.29081612     -11.62919461
Ta      -0.00355195       0.00649047       6.66683964
W        1.72318892       1.69823363       4.99269919
W        3.35352954       3.34234538       3.32397838
W        5.00246548       5.00004991       1.66588453
W        6.62189566       6.63813114      -0.03224037
W        8.30850604       8.26618150      -1.68089324
Ta       9.95730969      10.01314776      -3.32892393
Re      11.61172300      11.63336961      -4.99982159
W       13.28390597      13.26468362      -6.60260793
Ta      14.95230172      14.95856927      -8.29577149
W       16.62851430      16.67329642      -9.94260338
99
Lattice="-5.227877209547581 5.227877209547581 5.227877209547581 5.227877209547581 -5.227877209547581 5.227877209547581 19.168883101674467 19.168883101674467 -19.168883101674467" Properties=species:S:1:pos:R:3 energy=-701.3778250844563 max_force=0.00016156690265760326 pbc="T T T"
Re       0.29420529       0.61953669       0.56492119
W        0.69913483       1.15823766      -2.29789841
W        2.21419979       3.22391138      -3.34192567
W        3.71606374       5.25185231      -4.41201245
W        4.20421250       5.79322767      -7.26096190
Ta       7.51889272       6.46439294      -9.42944520
Re      14.02261377       9.63667082      -7.16703594
W       14.50279142      13.03159688     -12.55631579
Re      16.05870308      15.06862007     -13.64631992
W       16.48435346      15.55503678     -16.51312763
W       18.01191051      17.66913773     -17.56325460
W        2.11510064      -1.16043295       2.31498787
Ta       2.41324200      -0.65067240      -0.57457299
Ta       3.95098025       1.46406336      -1.63751508
Re       5.31429298       3.52326412      -2.70064516
Re       5.78377913       3.97299206      -5.49335218
W        7.33065094       5.85670872      -6.42568050
W       15.04591292       9.15056774      -9.58388684
W       16.32945315      11.14471058     -10.92892410
Ta      17.80039855      13.28747115     -11.92940308
W       18.18768590      13.85712699     -14.72878721
W       19.73335383      15.94042520     -15.79817364
V        3.83502918      -2.88201536       4.05657852
W        4.21098112      -2.36615657       1.21212594
W        5.71400921      -0.30206706       0.12851229
W        7.20025143       1.75725937      -0.93530462
W        7.46024169       2.30674599      -3.76532386
Ta       9.15885883       4.34141821      -4.64655519
W       16.48345531       7.94183512      -7.78449709